LAMMPS data file. CGCMM style. atom_style charge generated by VMD/TopoTools v1.7 on Thu Sep 07 10:43:24 +0330 2023
 6054 atoms
 0 bonds
 0 angles
 0 dihedrals
 0 impropers
 3 atom types
 0 bond types
 0 angle types
 0 dihedral types
 0 improper types
 -77.329989 77.329989  xlo xhi
 -77.329989 77.329989  ylo yhi
 -1.2000000 30.000000  zlo zhi

# Pair Coeffs
#
# 1  H
# 2  O
# 3  Pt

 Masses

 1 1.007940 # H
 2 15.999400 # O
 3 195.084000 # Pt

 Atoms # charge

1 3 0.000000 -76.626999 -76.626999 -0.994000 # Pt
2 3 0.000000 -75.221001 -75.221001 0.994000 # Pt
3 3 0.000000 -76.626999 -73.815002 -0.994000 # Pt
4 3 0.000000 -75.221001 -72.408997 0.994000 # Pt
5 3 0.000000 -76.626999 -71.002998 -0.994000 # Pt
6 3 0.000000 -75.221001 -69.597000 0.994000 # Pt
7 3 0.000000 -76.626999 -68.191002 -0.994000 # Pt
8 3 0.000000 -75.221001 -66.785004 0.994000 # Pt
9 3 0.000000 -76.626999 -65.378998 -0.994000 # Pt
10 3 0.000000 -75.221001 -63.973000 0.994000 # Pt
11 3 0.000000 -76.626999 -62.567001 -0.994000 # Pt
12 3 0.000000 -75.221001 -61.160999 0.994000 # Pt
13 3 0.000000 -76.626999 -59.755001 -0.994000 # Pt
14 3 0.000000 -75.221001 -58.348999 0.994000 # Pt
15 3 0.000000 -76.626999 -56.943001 -0.994000 # Pt
16 3 0.000000 -75.221001 -55.536999 0.994000 # Pt
17 3 0.000000 -76.626999 -54.131001 -0.994000 # Pt
18 3 0.000000 -75.221001 -52.724998 0.994000 # Pt
19 3 0.000000 -76.626999 -51.319000 -0.994000 # Pt
20 3 0.000000 -75.221001 -49.912998 0.994000 # Pt
21 3 0.000000 -76.626999 -48.507000 -0.994000 # Pt
22 3 0.000000 -75.221001 -47.101002 0.994000 # Pt
23 3 0.000000 -76.626999 -45.695000 -0.994000 # Pt
24 3 0.000000 -75.221001 -44.289001 0.994000 # Pt
25 3 0.000000 -76.626999 -42.882999 -0.994000 # Pt
26 3 0.000000 -75.221001 -41.477001 0.994000 # Pt
27 3 0.000000 -76.626999 -40.070999 -0.994000 # Pt
28 3 0.000000 -75.221001 -38.665001 0.994000 # Pt
29 3 0.000000 -76.626999 -37.258999 -0.994000 # Pt
30 3 0.000000 -75.221001 -35.853001 0.994000 # Pt
31 3 0.000000 -76.626999 -34.446999 -0.994000 # Pt
32 3 0.000000 -75.221001 -33.041000 0.994000 # Pt
33 3 0.000000 -76.626999 -31.635000 -0.994000 # Pt
34 3 0.000000 -75.221001 -30.229000 0.994000 # Pt
35 3 0.000000 -76.626999 -28.823000 -0.994000 # Pt
36 3 0.000000 -75.221001 -27.417000 0.994000 # Pt
37 3 0.000000 -76.626999 -26.011000 -0.994000 # Pt
38 3 0.000000 -75.221001 -24.605000 0.994000 # Pt
39 3 0.000000 -76.626999 -23.198999 -0.994000 # Pt
40 3 0.000000 -75.221001 -21.792999 0.994000 # Pt
41 3 0.000000 -76.626999 -20.386999 -0.994000 # Pt
42 3 0.000000 -75.221001 -18.981001 0.994000 # Pt
43 3 0.000000 -76.626999 -17.575001 -0.994000 # Pt
44 3 0.000000 -75.221001 -16.169001 0.994000 # Pt
45 3 0.000000 -76.626999 -14.763000 -0.994000 # Pt
46 3 0.000000 -75.221001 -13.357000 0.994000 # Pt
47 3 0.000000 -76.626999 -11.951000 -0.994000 # Pt
48 3 0.000000 -75.221001 -10.545000 0.994000 # Pt
49 3 0.000000 -76.626999 -9.139000 -0.994000 # Pt
50 3 0.000000 -75.221001 -7.733000 0.994000 # Pt
51 3 0.000000 -76.626999 -6.327000 -0.994000 # Pt
52 3 0.000000 -75.221001 -4.921000 0.994000 # Pt
53 3 0.000000 -76.626999 -3.515000 -0.994000 # Pt
54 3 0.000000 -75.221001 -2.109000 0.994000 # Pt
55 3 0.000000 -76.626999 -0.703000 -0.994000 # Pt
56 3 0.000000 -75.221001 0.703000 0.994000 # Pt
57 3 0.000000 -76.626999 2.109000 -0.994000 # Pt
58 3 0.000000 -75.221001 3.515000 0.994000 # Pt
59 3 0.000000 -76.626999 4.921000 -0.994000 # Pt
60 3 0.000000 -75.221001 6.327000 0.994000 # Pt
61 3 0.000000 -76.626999 7.733000 -0.994000 # Pt
62 3 0.000000 -75.221001 9.139000 0.994000 # Pt
63 3 0.000000 -76.626999 10.545000 -0.994000 # Pt
64 3 0.000000 -75.221001 11.951000 0.994000 # Pt
65 3 0.000000 -76.626999 13.357000 -0.994000 # Pt
66 3 0.000000 -75.221001 14.763000 0.994000 # Pt
67 3 0.000000 -76.626999 16.169001 -0.994000 # Pt
68 3 0.000000 -75.221001 17.575001 0.994000 # Pt
69 3 0.000000 -76.626999 18.981001 -0.994000 # Pt
70 3 0.000000 -75.221001 20.386999 0.994000 # Pt
71 3 0.000000 -76.626999 21.792999 -0.994000 # Pt
72 3 0.000000 -75.221001 23.198999 0.994000 # Pt
73 3 0.000000 -76.626999 24.605000 -0.994000 # Pt
74 3 0.000000 -75.221001 26.011000 0.994000 # Pt
75 3 0.000000 -76.626999 27.417000 -0.994000 # Pt
76 3 0.000000 -75.221001 28.823000 0.994000 # Pt
77 3 0.000000 -76.626999 30.229000 -0.994000 # Pt
78 3 0.000000 -75.221001 31.635000 0.994000 # Pt
79 3 0.000000 -76.626999 33.041000 -0.994000 # Pt
80 3 0.000000 -75.221001 34.446999 0.994000 # Pt
81 3 0.000000 -76.626999 35.853001 -0.994000 # Pt
82 3 0.000000 -75.221001 37.258999 0.994000 # Pt
83 3 0.000000 -76.626999 38.665001 -0.994000 # Pt
84 3 0.000000 -75.221001 40.070999 0.994000 # Pt
85 3 0.000000 -76.626999 41.477001 -0.994000 # Pt
86 3 0.000000 -75.221001 42.882999 0.994000 # Pt
87 3 0.000000 -76.626999 44.289001 -0.994000 # Pt
88 3 0.000000 -75.221001 45.695000 0.994000 # Pt
89 3 0.000000 -76.626999 47.101002 -0.994000 # Pt
90 3 0.000000 -75.221001 48.507000 0.994000 # Pt
91 3 0.000000 -76.626999 49.912998 -0.994000 # Pt
92 3 0.000000 -75.221001 51.319000 0.994000 # Pt
93 3 0.000000 -76.626999 52.724998 -0.994000 # Pt
94 3 0.000000 -75.221001 54.131001 0.994000 # Pt
95 3 0.000000 -76.626999 55.536999 -0.994000 # Pt
96 3 0.000000 -75.221001 56.943001 0.994000 # Pt
97 3 0.000000 -76.626999 58.348999 -0.994000 # Pt
98 3 0.000000 -75.221001 59.755001 0.994000 # Pt
99 3 0.000000 -76.626999 61.160999 -0.994000 # Pt
100 3 0.000000 -75.221001 62.567001 0.994000 # Pt
101 3 0.000000 -76.626999 63.973000 -0.994000 # Pt
102 3 0.000000 -75.221001 65.378998 0.994000 # Pt
103 3 0.000000 -76.626999 66.785004 -0.994000 # Pt
104 3 0.000000 -75.221001 68.191002 0.994000 # Pt
105 3 0.000000 -76.626999 69.597000 -0.994000 # Pt
106 3 0.000000 -75.221001 71.002998 0.994000 # Pt
107 3 0.000000 -76.626999 72.408997 -0.994000 # Pt
108 3 0.000000 -75.221001 73.815002 0.994000 # Pt
109 3 0.000000 -76.626999 75.221001 -0.994000 # Pt
110 3 0.000000 -75.221001 76.626999 0.994000 # Pt
111 3 0.000000 -73.815002 -76.626999 -0.994000 # Pt
112 3 0.000000 -72.408997 -75.221001 0.994000 # Pt
113 3 0.000000 -73.815002 -73.815002 -0.994000 # Pt
114 3 0.000000 -72.408997 -72.408997 0.994000 # Pt
115 3 0.000000 -73.815002 -71.002998 -0.994000 # Pt
116 3 0.000000 -72.408997 -69.597000 0.994000 # Pt
117 3 0.000000 -73.815002 -68.191002 -0.994000 # Pt
118 3 0.000000 -72.408997 -66.785004 0.994000 # Pt
119 3 0.000000 -73.815002 -65.378998 -0.994000 # Pt
120 3 0.000000 -72.408997 -63.973000 0.994000 # Pt
121 3 0.000000 -73.815002 -62.567001 -0.994000 # Pt
122 3 0.000000 -72.408997 -61.160999 0.994000 # Pt
123 3 0.000000 -73.815002 -59.755001 -0.994000 # Pt
124 3 0.000000 -72.408997 -58.348999 0.994000 # Pt
125 3 0.000000 -73.815002 -56.943001 -0.994000 # Pt
126 3 0.000000 -72.408997 -55.536999 0.994000 # Pt
127 3 0.000000 -73.815002 -54.131001 -0.994000 # Pt
128 3 0.000000 -72.408997 -52.724998 0.994000 # Pt
129 3 0.000000 -73.815002 -51.319000 -0.994000 # Pt
130 3 0.000000 -72.408997 -49.912998 0.994000 # Pt
131 3 0.000000 -73.815002 -48.507000 -0.994000 # Pt
132 3 0.000000 -72.408997 -47.101002 0.994000 # Pt
133 3 0.000000 -73.815002 -45.695000 -0.994000 # Pt
134 3 0.000000 -72.408997 -44.289001 0.994000 # Pt
135 3 0.000000 -73.815002 -42.882999 -0.994000 # Pt
136 3 0.000000 -72.408997 -41.477001 0.994000 # Pt
137 3 0.000000 -73.815002 -40.070999 -0.994000 # Pt
138 3 0.000000 -72.408997 -38.665001 0.994000 # Pt
139 3 0.000000 -73.815002 -37.258999 -0.994000 # Pt
140 3 0.000000 -72.408997 -35.853001 0.994000 # Pt
141 3 0.000000 -73.815002 -34.446999 -0.994000 # Pt
142 3 0.000000 -72.408997 -33.041000 0.994000 # Pt
143 3 0.000000 -73.815002 -31.635000 -0.994000 # Pt
144 3 0.000000 -72.408997 -30.229000 0.994000 # Pt
145 3 0.000000 -73.815002 -28.823000 -0.994000 # Pt
146 3 0.000000 -72.408997 -27.417000 0.994000 # Pt
147 3 0.000000 -73.815002 -26.011000 -0.994000 # Pt
148 3 0.000000 -72.408997 -24.605000 0.994000 # Pt
149 3 0.000000 -73.815002 -23.198999 -0.994000 # Pt
150 3 0.000000 -72.408997 -21.792999 0.994000 # Pt
151 3 0.000000 -73.815002 -20.386999 -0.994000 # Pt
152 3 0.000000 -72.408997 -18.981001 0.994000 # Pt
153 3 0.000000 -73.815002 -17.575001 -0.994000 # Pt
154 3 0.000000 -72.408997 -16.169001 0.994000 # Pt
155 3 0.000000 -73.815002 -14.763000 -0.994000 # Pt
156 3 0.000000 -72.408997 -13.357000 0.994000 # Pt
157 3 0.000000 -73.815002 -11.951000 -0.994000 # Pt
158 3 0.000000 -72.408997 -10.545000 0.994000 # Pt
159 3 0.000000 -73.815002 -9.139000 -0.994000 # Pt
160 3 0.000000 -72.408997 -7.733000 0.994000 # Pt
161 3 0.000000 -73.815002 -6.327000 -0.994000 # Pt
162 3 0.000000 -72.408997 -4.921000 0.994000 # Pt
163 3 0.000000 -73.815002 -3.515000 -0.994000 # Pt
164 3 0.000000 -72.408997 -2.109000 0.994000 # Pt
165 3 0.000000 -73.815002 -0.703000 -0.994000 # Pt
166 3 0.000000 -72.408997 0.703000 0.994000 # Pt
167 3 0.000000 -73.815002 2.109000 -0.994000 # Pt
168 3 0.000000 -72.408997 3.515000 0.994000 # Pt
169 3 0.000000 -73.815002 4.921000 -0.994000 # Pt
170 3 0.000000 -72.408997 6.327000 0.994000 # Pt
171 3 0.000000 -73.815002 7.733000 -0.994000 # Pt
172 3 0.000000 -72.408997 9.139000 0.994000 # Pt
173 3 0.000000 -73.815002 10.545000 -0.994000 # Pt
174 3 0.000000 -72.408997 11.951000 0.994000 # Pt
175 3 0.000000 -73.815002 13.357000 -0.994000 # Pt
176 3 0.000000 -72.408997 14.763000 0.994000 # Pt
177 3 0.000000 -73.815002 16.169001 -0.994000 # Pt
178 3 0.000000 -72.408997 17.575001 0.994000 # Pt
179 3 0.000000 -73.815002 18.981001 -0.994000 # Pt
180 3 0.000000 -72.408997 20.386999 0.994000 # Pt
181 3 0.000000 -73.815002 21.792999 -0.994000 # Pt
182 3 0.000000 -72.408997 23.198999 0.994000 # Pt
183 3 0.000000 -73.815002 24.605000 -0.994000 # Pt
184 3 0.000000 -72.408997 26.011000 0.994000 # Pt
185 3 0.000000 -73.815002 27.417000 -0.994000 # Pt
186 3 0.000000 -72.408997 28.823000 0.994000 # Pt
187 3 0.000000 -73.815002 30.229000 -0.994000 # Pt
188 3 0.000000 -72.408997 31.635000 0.994000 # Pt
189 3 0.000000 -73.815002 33.041000 -0.994000 # Pt
190 3 0.000000 -72.408997 34.446999 0.994000 # Pt
191 3 0.000000 -73.815002 35.853001 -0.994000 # Pt
192 3 0.000000 -72.408997 37.258999 0.994000 # Pt
193 3 0.000000 -73.815002 38.665001 -0.994000 # Pt
194 3 0.000000 -72.408997 40.070999 0.994000 # Pt
195 3 0.000000 -73.815002 41.477001 -0.994000 # Pt
196 3 0.000000 -72.408997 42.882999 0.994000 # Pt
197 3 0.000000 -73.815002 44.289001 -0.994000 # Pt
198 3 0.000000 -72.408997 45.695000 0.994000 # Pt
199 3 0.000000 -73.815002 47.101002 -0.994000 # Pt
200 3 0.000000 -72.408997 48.507000 0.994000 # Pt
201 3 0.000000 -73.815002 49.912998 -0.994000 # Pt
202 3 0.000000 -72.408997 51.319000 0.994000 # Pt
203 3 0.000000 -73.815002 52.724998 -0.994000 # Pt
204 3 0.000000 -72.408997 54.131001 0.994000 # Pt
205 3 0.000000 -73.815002 55.536999 -0.994000 # Pt
206 3 0.000000 -72.408997 56.943001 0.994000 # Pt
207 3 0.000000 -73.815002 58.348999 -0.994000 # Pt
208 3 0.000000 -72.408997 59.755001 0.994000 # Pt
209 3 0.000000 -73.815002 61.160999 -0.994000 # Pt
210 3 0.000000 -72.408997 62.567001 0.994000 # Pt
211 3 0.000000 -73.815002 63.973000 -0.994000 # Pt
212 3 0.000000 -72.408997 65.378998 0.994000 # Pt
213 3 0.000000 -73.815002 66.785004 -0.994000 # Pt
214 3 0.000000 -72.408997 68.191002 0.994000 # Pt
215 3 0.000000 -73.815002 69.597000 -0.994000 # Pt
216 3 0.000000 -72.408997 71.002998 0.994000 # Pt
217 3 0.000000 -73.815002 72.408997 -0.994000 # Pt
218 3 0.000000 -72.408997 73.815002 0.994000 # Pt
219 3 0.000000 -73.815002 75.221001 -0.994000 # Pt
220 3 0.000000 -72.408997 76.626999 0.994000 # Pt
221 3 0.000000 -71.002998 -76.626999 -0.994000 # Pt
222 3 0.000000 -69.597000 -75.221001 0.994000 # Pt
223 3 0.000000 -71.002998 -73.815002 -0.994000 # Pt
224 3 0.000000 -69.597000 -72.408997 0.994000 # Pt
225 3 0.000000 -71.002998 -71.002998 -0.994000 # Pt
226 3 0.000000 -69.597000 -69.597000 0.994000 # Pt
227 3 0.000000 -71.002998 -68.191002 -0.994000 # Pt
228 3 0.000000 -69.597000 -66.785004 0.994000 # Pt
229 3 0.000000 -71.002998 -65.378998 -0.994000 # Pt
230 3 0.000000 -69.597000 -63.973000 0.994000 # Pt
231 3 0.000000 -71.002998 -62.567001 -0.994000 # Pt
232 3 0.000000 -69.597000 -61.160999 0.994000 # Pt
233 3 0.000000 -71.002998 -59.755001 -0.994000 # Pt
234 3 0.000000 -69.597000 -58.348999 0.994000 # Pt
235 3 0.000000 -71.002998 -56.943001 -0.994000 # Pt
236 3 0.000000 -69.597000 -55.536999 0.994000 # Pt
237 3 0.000000 -71.002998 -54.131001 -0.994000 # Pt
238 3 0.000000 -69.597000 -52.724998 0.994000 # Pt
239 3 0.000000 -71.002998 -51.319000 -0.994000 # Pt
240 3 0.000000 -69.597000 -49.912998 0.994000 # Pt
241 3 0.000000 -71.002998 -48.507000 -0.994000 # Pt
242 3 0.000000 -69.597000 -47.101002 0.994000 # Pt
243 3 0.000000 -71.002998 -45.695000 -0.994000 # Pt
244 3 0.000000 -69.597000 -44.289001 0.994000 # Pt
245 3 0.000000 -71.002998 -42.882999 -0.994000 # Pt
246 3 0.000000 -69.597000 -41.477001 0.994000 # Pt
247 3 0.000000 -71.002998 -40.070999 -0.994000 # Pt
248 3 0.000000 -69.597000 -38.665001 0.994000 # Pt
249 3 0.000000 -71.002998 -37.258999 -0.994000 # Pt
250 3 0.000000 -69.597000 -35.853001 0.994000 # Pt
251 3 0.000000 -71.002998 -34.446999 -0.994000 # Pt
252 3 0.000000 -69.597000 -33.041000 0.994000 # Pt
253 3 0.000000 -71.002998 -31.635000 -0.994000 # Pt
254 3 0.000000 -69.597000 -30.229000 0.994000 # Pt
255 3 0.000000 -71.002998 -28.823000 -0.994000 # Pt
256 3 0.000000 -69.597000 -27.417000 0.994000 # Pt
257 3 0.000000 -71.002998 -26.011000 -0.994000 # Pt
258 3 0.000000 -69.597000 -24.605000 0.994000 # Pt
259 3 0.000000 -71.002998 -23.198999 -0.994000 # Pt
260 3 0.000000 -69.597000 -21.792999 0.994000 # Pt
261 3 0.000000 -71.002998 -20.386999 -0.994000 # Pt
262 3 0.000000 -69.597000 -18.981001 0.994000 # Pt
263 3 0.000000 -71.002998 -17.575001 -0.994000 # Pt
264 3 0.000000 -69.597000 -16.169001 0.994000 # Pt
265 3 0.000000 -71.002998 -14.763000 -0.994000 # Pt
266 3 0.000000 -69.597000 -13.357000 0.994000 # Pt
267 3 0.000000 -71.002998 -11.951000 -0.994000 # Pt
268 3 0.000000 -69.597000 -10.545000 0.994000 # Pt
269 3 0.000000 -71.002998 -9.139000 -0.994000 # Pt
270 3 0.000000 -69.597000 -7.733000 0.994000 # Pt
271 3 0.000000 -71.002998 -6.327000 -0.994000 # Pt
272 3 0.000000 -69.597000 -4.921000 0.994000 # Pt
273 3 0.000000 -71.002998 -3.515000 -0.994000 # Pt
274 3 0.000000 -69.597000 -2.109000 0.994000 # Pt
275 3 0.000000 -71.002998 -0.703000 -0.994000 # Pt
276 3 0.000000 -69.597000 0.703000 0.994000 # Pt
277 3 0.000000 -71.002998 2.109000 -0.994000 # Pt
278 3 0.000000 -69.597000 3.515000 0.994000 # Pt
279 3 0.000000 -71.002998 4.921000 -0.994000 # Pt
280 3 0.000000 -69.597000 6.327000 0.994000 # Pt
281 3 0.000000 -71.002998 7.733000 -0.994000 # Pt
282 3 0.000000 -69.597000 9.139000 0.994000 # Pt
283 3 0.000000 -71.002998 10.545000 -0.994000 # Pt
284 3 0.000000 -69.597000 11.951000 0.994000 # Pt
285 3 0.000000 -71.002998 13.357000 -0.994000 # Pt
286 3 0.000000 -69.597000 14.763000 0.994000 # Pt
287 3 0.000000 -71.002998 16.169001 -0.994000 # Pt
288 3 0.000000 -69.597000 17.575001 0.994000 # Pt
289 3 0.000000 -71.002998 18.981001 -0.994000 # Pt
290 3 0.000000 -69.597000 20.386999 0.994000 # Pt
291 3 0.000000 -71.002998 21.792999 -0.994000 # Pt
292 3 0.000000 -69.597000 23.198999 0.994000 # Pt
293 3 0.000000 -71.002998 24.605000 -0.994000 # Pt
294 3 0.000000 -69.597000 26.011000 0.994000 # Pt
295 3 0.000000 -71.002998 27.417000 -0.994000 # Pt
296 3 0.000000 -69.597000 28.823000 0.994000 # Pt
297 3 0.000000 -71.002998 30.229000 -0.994000 # Pt
298 3 0.000000 -69.597000 31.635000 0.994000 # Pt
299 3 0.000000 -71.002998 33.041000 -0.994000 # Pt
300 3 0.000000 -69.597000 34.446999 0.994000 # Pt
301 3 0.000000 -71.002998 35.853001 -0.994000 # Pt
302 3 0.000000 -69.597000 37.258999 0.994000 # Pt
303 3 0.000000 -71.002998 38.665001 -0.994000 # Pt
304 3 0.000000 -69.597000 40.070999 0.994000 # Pt
305 3 0.000000 -71.002998 41.477001 -0.994000 # Pt
306 3 0.000000 -69.597000 42.882999 0.994000 # Pt
307 3 0.000000 -71.002998 44.289001 -0.994000 # Pt
308 3 0.000000 -69.597000 45.695000 0.994000 # Pt
309 3 0.000000 -71.002998 47.101002 -0.994000 # Pt
310 3 0.000000 -69.597000 48.507000 0.994000 # Pt
311 3 0.000000 -71.002998 49.912998 -0.994000 # Pt
312 3 0.000000 -69.597000 51.319000 0.994000 # Pt
313 3 0.000000 -71.002998 52.724998 -0.994000 # Pt
314 3 0.000000 -69.597000 54.131001 0.994000 # Pt
315 3 0.000000 -71.002998 55.536999 -0.994000 # Pt
316 3 0.000000 -69.597000 56.943001 0.994000 # Pt
317 3 0.000000 -71.002998 58.348999 -0.994000 # Pt
318 3 0.000000 -69.597000 59.755001 0.994000 # Pt
319 3 0.000000 -71.002998 61.160999 -0.994000 # Pt
320 3 0.000000 -69.597000 62.567001 0.994000 # Pt
321 3 0.000000 -71.002998 63.973000 -0.994000 # Pt
322 3 0.000000 -69.597000 65.378998 0.994000 # Pt
323 3 0.000000 -71.002998 66.785004 -0.994000 # Pt
324 3 0.000000 -69.597000 68.191002 0.994000 # Pt
325 3 0.000000 -71.002998 69.597000 -0.994000 # Pt
326 3 0.000000 -69.597000 71.002998 0.994000 # Pt
327 3 0.000000 -71.002998 72.408997 -0.994000 # Pt
328 3 0.000000 -69.597000 73.815002 0.994000 # Pt
329 3 0.000000 -71.002998 75.221001 -0.994000 # Pt
330 3 0.000000 -69.597000 76.626999 0.994000 # Pt
331 3 0.000000 -68.191002 -76.626999 -0.994000 # Pt
332 3 0.000000 -66.785004 -75.221001 0.994000 # Pt
333 3 0.000000 -68.191002 -73.815002 -0.994000 # Pt
334 3 0.000000 -66.785004 -72.408997 0.994000 # Pt
335 3 0.000000 -68.191002 -71.002998 -0.994000 # Pt
336 3 0.000000 -66.785004 -69.597000 0.994000 # Pt
337 3 0.000000 -68.191002 -68.191002 -0.994000 # Pt
338 3 0.000000 -66.785004 -66.785004 0.994000 # Pt
339 3 0.000000 -68.191002 -65.378998 -0.994000 # Pt
340 3 0.000000 -66.785004 -63.973000 0.994000 # Pt
341 3 0.000000 -68.191002 -62.567001 -0.994000 # Pt
342 3 0.000000 -66.785004 -61.160999 0.994000 # Pt
343 3 0.000000 -68.191002 -59.755001 -0.994000 # Pt
344 3 0.000000 -66.785004 -58.348999 0.994000 # Pt
345 3 0.000000 -68.191002 -56.943001 -0.994000 # Pt
346 3 0.000000 -66.785004 -55.536999 0.994000 # Pt
347 3 0.000000 -68.191002 -54.131001 -0.994000 # Pt
348 3 0.000000 -66.785004 -52.724998 0.994000 # Pt
349 3 0.000000 -68.191002 -51.319000 -0.994000 # Pt
350 3 0.000000 -66.785004 -49.912998 0.994000 # Pt
351 3 0.000000 -68.191002 -48.507000 -0.994000 # Pt
352 3 0.000000 -66.785004 -47.101002 0.994000 # Pt
353 3 0.000000 -68.191002 -45.695000 -0.994000 # Pt
354 3 0.000000 -66.785004 -44.289001 0.994000 # Pt
355 3 0.000000 -68.191002 -42.882999 -0.994000 # Pt
356 3 0.000000 -66.785004 -41.477001 0.994000 # Pt
357 3 0.000000 -68.191002 -40.070999 -0.994000 # Pt
358 3 0.000000 -66.785004 -38.665001 0.994000 # Pt
359 3 0.000000 -68.191002 -37.258999 -0.994000 # Pt
360 3 0.000000 -66.785004 -35.853001 0.994000 # Pt
361 3 0.000000 -68.191002 -34.446999 -0.994000 # Pt
362 3 0.000000 -66.785004 -33.041000 0.994000 # Pt
363 3 0.000000 -68.191002 -31.635000 -0.994000 # Pt
364 3 0.000000 -66.785004 -30.229000 0.994000 # Pt
365 3 0.000000 -68.191002 -28.823000 -0.994000 # Pt
366 3 0.000000 -66.785004 -27.417000 0.994000 # Pt
367 3 0.000000 -68.191002 -26.011000 -0.994000 # Pt
368 3 0.000000 -66.785004 -24.605000 0.994000 # Pt
369 3 0.000000 -68.191002 -23.198999 -0.994000 # Pt
370 3 0.000000 -66.785004 -21.792999 0.994000 # Pt
371 3 0.000000 -68.191002 -20.386999 -0.994000 # Pt
372 3 0.000000 -66.785004 -18.981001 0.994000 # Pt
373 3 0.000000 -68.191002 -17.575001 -0.994000 # Pt
374 3 0.000000 -66.785004 -16.169001 0.994000 # Pt
375 3 0.000000 -68.191002 -14.763000 -0.994000 # Pt
376 3 0.000000 -66.785004 -13.357000 0.994000 # Pt
377 3 0.000000 -68.191002 -11.951000 -0.994000 # Pt
378 3 0.000000 -66.785004 -10.545000 0.994000 # Pt
379 3 0.000000 -68.191002 -9.139000 -0.994000 # Pt
380 3 0.000000 -66.785004 -7.733000 0.994000 # Pt
381 3 0.000000 -68.191002 -6.327000 -0.994000 # Pt
382 3 0.000000 -66.785004 -4.921000 0.994000 # Pt
383 3 0.000000 -68.191002 -3.515000 -0.994000 # Pt
384 3 0.000000 -66.785004 -2.109000 0.994000 # Pt
385 3 0.000000 -68.191002 -0.703000 -0.994000 # Pt
386 3 0.000000 -66.785004 0.703000 0.994000 # Pt
387 3 0.000000 -68.191002 2.109000 -0.994000 # Pt
388 3 0.000000 -66.785004 3.515000 0.994000 # Pt
389 3 0.000000 -68.191002 4.921000 -0.994000 # Pt
390 3 0.000000 -66.785004 6.327000 0.994000 # Pt
391 3 0.000000 -68.191002 7.733000 -0.994000 # Pt
392 3 0.000000 -66.785004 9.139000 0.994000 # Pt
393 3 0.000000 -68.191002 10.545000 -0.994000 # Pt
394 3 0.000000 -66.785004 11.951000 0.994000 # Pt
395 3 0.000000 -68.191002 13.357000 -0.994000 # Pt
396 3 0.000000 -66.785004 14.763000 0.994000 # Pt
397 3 0.000000 -68.191002 16.169001 -0.994000 # Pt
398 3 0.000000 -66.785004 17.575001 0.994000 # Pt
399 3 0.000000 -68.191002 18.981001 -0.994000 # Pt
400 3 0.000000 -66.785004 20.386999 0.994000 # Pt
401 3 0.000000 -68.191002 21.792999 -0.994000 # Pt
402 3 0.000000 -66.785004 23.198999 0.994000 # Pt
403 3 0.000000 -68.191002 24.605000 -0.994000 # Pt
404 3 0.000000 -66.785004 26.011000 0.994000 # Pt
405 3 0.000000 -68.191002 27.417000 -0.994000 # Pt
406 3 0.000000 -66.785004 28.823000 0.994000 # Pt
407 3 0.000000 -68.191002 30.229000 -0.994000 # Pt
408 3 0.000000 -66.785004 31.635000 0.994000 # Pt
409 3 0.000000 -68.191002 33.041000 -0.994000 # Pt
410 3 0.000000 -66.785004 34.446999 0.994000 # Pt
411 3 0.000000 -68.191002 35.853001 -0.994000 # Pt
412 3 0.000000 -66.785004 37.258999 0.994000 # Pt
413 3 0.000000 -68.191002 38.665001 -0.994000 # Pt
414 3 0.000000 -66.785004 40.070999 0.994000 # Pt
415 3 0.000000 -68.191002 41.477001 -0.994000 # Pt
416 3 0.000000 -66.785004 42.882999 0.994000 # Pt
417 3 0.000000 -68.191002 44.289001 -0.994000 # Pt
418 3 0.000000 -66.785004 45.695000 0.994000 # Pt
419 3 0.000000 -68.191002 47.101002 -0.994000 # Pt
420 3 0.000000 -66.785004 48.507000 0.994000 # Pt
421 3 0.000000 -68.191002 49.912998 -0.994000 # Pt
422 3 0.000000 -66.785004 51.319000 0.994000 # Pt
423 3 0.000000 -68.191002 52.724998 -0.994000 # Pt
424 3 0.000000 -66.785004 54.131001 0.994000 # Pt
425 3 0.000000 -68.191002 55.536999 -0.994000 # Pt
426 3 0.000000 -66.785004 56.943001 0.994000 # Pt
427 3 0.000000 -68.191002 58.348999 -0.994000 # Pt
428 3 0.000000 -66.785004 59.755001 0.994000 # Pt
429 3 0.000000 -68.191002 61.160999 -0.994000 # Pt
430 3 0.000000 -66.785004 62.567001 0.994000 # Pt
431 3 0.000000 -68.191002 63.973000 -0.994000 # Pt
432 3 0.000000 -66.785004 65.378998 0.994000 # Pt
433 3 0.000000 -68.191002 66.785004 -0.994000 # Pt
434 3 0.000000 -66.785004 68.191002 0.994000 # Pt
435 3 0.000000 -68.191002 69.597000 -0.994000 # Pt
436 3 0.000000 -66.785004 71.002998 0.994000 # Pt
437 3 0.000000 -68.191002 72.408997 -0.994000 # Pt
438 3 0.000000 -66.785004 73.815002 0.994000 # Pt
439 3 0.000000 -68.191002 75.221001 -0.994000 # Pt
440 3 0.000000 -66.785004 76.626999 0.994000 # Pt
441 3 0.000000 -65.378998 -76.626999 -0.994000 # Pt
442 3 0.000000 -63.973000 -75.221001 0.994000 # Pt
443 3 0.000000 -65.378998 -73.815002 -0.994000 # Pt
444 3 0.000000 -63.973000 -72.408997 0.994000 # Pt
445 3 0.000000 -65.378998 -71.002998 -0.994000 # Pt
446 3 0.000000 -63.973000 -69.597000 0.994000 # Pt
447 3 0.000000 -65.378998 -68.191002 -0.994000 # Pt
448 3 0.000000 -63.973000 -66.785004 0.994000 # Pt
449 3 0.000000 -65.378998 -65.378998 -0.994000 # Pt
450 3 0.000000 -63.973000 -63.973000 0.994000 # Pt
451 3 0.000000 -65.378998 -62.567001 -0.994000 # Pt
452 3 0.000000 -63.973000 -61.160999 0.994000 # Pt
453 3 0.000000 -65.378998 -59.755001 -0.994000 # Pt
454 3 0.000000 -63.973000 -58.348999 0.994000 # Pt
455 3 0.000000 -65.378998 -56.943001 -0.994000 # Pt
456 3 0.000000 -63.973000 -55.536999 0.994000 # Pt
457 3 0.000000 -65.378998 -54.131001 -0.994000 # Pt
458 3 0.000000 -63.973000 -52.724998 0.994000 # Pt
459 3 0.000000 -65.378998 -51.319000 -0.994000 # Pt
460 3 0.000000 -63.973000 -49.912998 0.994000 # Pt
461 3 0.000000 -65.378998 -48.507000 -0.994000 # Pt
462 3 0.000000 -63.973000 -47.101002 0.994000 # Pt
463 3 0.000000 -65.378998 -45.695000 -0.994000 # Pt
464 3 0.000000 -63.973000 -44.289001 0.994000 # Pt
465 3 0.000000 -65.378998 -42.882999 -0.994000 # Pt
466 3 0.000000 -63.973000 -41.477001 0.994000 # Pt
467 3 0.000000 -65.378998 -40.070999 -0.994000 # Pt
468 3 0.000000 -63.973000 -38.665001 0.994000 # Pt
469 3 0.000000 -65.378998 -37.258999 -0.994000 # Pt
470 3 0.000000 -63.973000 -35.853001 0.994000 # Pt
471 3 0.000000 -65.378998 -34.446999 -0.994000 # Pt
472 3 0.000000 -63.973000 -33.041000 0.994000 # Pt
473 3 0.000000 -65.378998 -31.635000 -0.994000 # Pt
474 3 0.000000 -63.973000 -30.229000 0.994000 # Pt
475 3 0.000000 -65.378998 -28.823000 -0.994000 # Pt
476 3 0.000000 -63.973000 -27.417000 0.994000 # Pt
477 3 0.000000 -65.378998 -26.011000 -0.994000 # Pt
478 3 0.000000 -63.973000 -24.605000 0.994000 # Pt
479 3 0.000000 -65.378998 -23.198999 -0.994000 # Pt
480 3 0.000000 -63.973000 -21.792999 0.994000 # Pt
481 3 0.000000 -65.378998 -20.386999 -0.994000 # Pt
482 3 0.000000 -63.973000 -18.981001 0.994000 # Pt
483 3 0.000000 -65.378998 -17.575001 -0.994000 # Pt
484 3 0.000000 -63.973000 -16.169001 0.994000 # Pt
485 3 0.000000 -65.378998 -14.763000 -0.994000 # Pt
486 3 0.000000 -63.973000 -13.357000 0.994000 # Pt
487 3 0.000000 -65.378998 -11.951000 -0.994000 # Pt
488 3 0.000000 -63.973000 -10.545000 0.994000 # Pt
489 3 0.000000 -65.378998 -9.139000 -0.994000 # Pt
490 3 0.000000 -63.973000 -7.733000 0.994000 # Pt
491 3 0.000000 -65.378998 -6.327000 -0.994000 # Pt
492 3 0.000000 -63.973000 -4.921000 0.994000 # Pt
493 3 0.000000 -65.378998 -3.515000 -0.994000 # Pt
494 3 0.000000 -63.973000 -2.109000 0.994000 # Pt
495 3 0.000000 -65.378998 -0.703000 -0.994000 # Pt
496 3 0.000000 -63.973000 0.703000 0.994000 # Pt
497 3 0.000000 -65.378998 2.109000 -0.994000 # Pt
498 3 0.000000 -63.973000 3.515000 0.994000 # Pt
499 3 0.000000 -65.378998 4.921000 -0.994000 # Pt
500 3 0.000000 -63.973000 6.327000 0.994000 # Pt
501 3 0.000000 -65.378998 7.733000 -0.994000 # Pt
502 3 0.000000 -63.973000 9.139000 0.994000 # Pt
503 3 0.000000 -65.378998 10.545000 -0.994000 # Pt
504 3 0.000000 -63.973000 11.951000 0.994000 # Pt
505 3 0.000000 -65.378998 13.357000 -0.994000 # Pt
506 3 0.000000 -63.973000 14.763000 0.994000 # Pt
507 3 0.000000 -65.378998 16.169001 -0.994000 # Pt
508 3 0.000000 -63.973000 17.575001 0.994000 # Pt
509 3 0.000000 -65.378998 18.981001 -0.994000 # Pt
510 3 0.000000 -63.973000 20.386999 0.994000 # Pt
511 3 0.000000 -65.378998 21.792999 -0.994000 # Pt
512 3 0.000000 -63.973000 23.198999 0.994000 # Pt
513 3 0.000000 -65.378998 24.605000 -0.994000 # Pt
514 3 0.000000 -63.973000 26.011000 0.994000 # Pt
515 3 0.000000 -65.378998 27.417000 -0.994000 # Pt
516 3 0.000000 -63.973000 28.823000 0.994000 # Pt
517 3 0.000000 -65.378998 30.229000 -0.994000 # Pt
518 3 0.000000 -63.973000 31.635000 0.994000 # Pt
519 3 0.000000 -65.378998 33.041000 -0.994000 # Pt
520 3 0.000000 -63.973000 34.446999 0.994000 # Pt
521 3 0.000000 -65.378998 35.853001 -0.994000 # Pt
522 3 0.000000 -63.973000 37.258999 0.994000 # Pt
523 3 0.000000 -65.378998 38.665001 -0.994000 # Pt
524 3 0.000000 -63.973000 40.070999 0.994000 # Pt
525 3 0.000000 -65.378998 41.477001 -0.994000 # Pt
526 3 0.000000 -63.973000 42.882999 0.994000 # Pt
527 3 0.000000 -65.378998 44.289001 -0.994000 # Pt
528 3 0.000000 -63.973000 45.695000 0.994000 # Pt
529 3 0.000000 -65.378998 47.101002 -0.994000 # Pt
530 3 0.000000 -63.973000 48.507000 0.994000 # Pt
531 3 0.000000 -65.378998 49.912998 -0.994000 # Pt
532 3 0.000000 -63.973000 51.319000 0.994000 # Pt
533 3 0.000000 -65.378998 52.724998 -0.994000 # Pt
534 3 0.000000 -63.973000 54.131001 0.994000 # Pt
535 3 0.000000 -65.378998 55.536999 -0.994000 # Pt
536 3 0.000000 -63.973000 56.943001 0.994000 # Pt
537 3 0.000000 -65.378998 58.348999 -0.994000 # Pt
538 3 0.000000 -63.973000 59.755001 0.994000 # Pt
539 3 0.000000 -65.378998 61.160999 -0.994000 # Pt
540 3 0.000000 -63.973000 62.567001 0.994000 # Pt
541 3 0.000000 -65.378998 63.973000 -0.994000 # Pt
542 3 0.000000 -63.973000 65.378998 0.994000 # Pt
543 3 0.000000 -65.378998 66.785004 -0.994000 # Pt
544 3 0.000000 -63.973000 68.191002 0.994000 # Pt
545 3 0.000000 -65.378998 69.597000 -0.994000 # Pt
546 3 0.000000 -63.973000 71.002998 0.994000 # Pt
547 3 0.000000 -65.378998 72.408997 -0.994000 # Pt
548 3 0.000000 -63.973000 73.815002 0.994000 # Pt
549 3 0.000000 -65.378998 75.221001 -0.994000 # Pt
550 3 0.000000 -63.973000 76.626999 0.994000 # Pt
551 3 0.000000 -62.567001 -76.626999 -0.994000 # Pt
552 3 0.000000 -61.160999 -75.221001 0.994000 # Pt
553 3 0.000000 -62.567001 -73.815002 -0.994000 # Pt
554 3 0.000000 -61.160999 -72.408997 0.994000 # Pt
555 3 0.000000 -62.567001 -71.002998 -0.994000 # Pt
556 3 0.000000 -61.160999 -69.597000 0.994000 # Pt
557 3 0.000000 -62.567001 -68.191002 -0.994000 # Pt
558 3 0.000000 -61.160999 -66.785004 0.994000 # Pt
559 3 0.000000 -62.567001 -65.378998 -0.994000 # Pt
560 3 0.000000 -61.160999 -63.973000 0.994000 # Pt
561 3 0.000000 -62.567001 -62.567001 -0.994000 # Pt
562 3 0.000000 -61.160999 -61.160999 0.994000 # Pt
563 3 0.000000 -62.567001 -59.755001 -0.994000 # Pt
564 3 0.000000 -61.160999 -58.348999 0.994000 # Pt
565 3 0.000000 -62.567001 -56.943001 -0.994000 # Pt
566 3 0.000000 -61.160999 -55.536999 0.994000 # Pt
567 3 0.000000 -62.567001 -54.131001 -0.994000 # Pt
568 3 0.000000 -61.160999 -52.724998 0.994000 # Pt
569 3 0.000000 -62.567001 -51.319000 -0.994000 # Pt
570 3 0.000000 -61.160999 -49.912998 0.994000 # Pt
571 3 0.000000 -62.567001 -48.507000 -0.994000 # Pt
572 3 0.000000 -61.160999 -47.101002 0.994000 # Pt
573 3 0.000000 -62.567001 -45.695000 -0.994000 # Pt
574 3 0.000000 -61.160999 -44.289001 0.994000 # Pt
575 3 0.000000 -62.567001 -42.882999 -0.994000 # Pt
576 3 0.000000 -61.160999 -41.477001 0.994000 # Pt
577 3 0.000000 -62.567001 -40.070999 -0.994000 # Pt
578 3 0.000000 -61.160999 -38.665001 0.994000 # Pt
579 3 0.000000 -62.567001 -37.258999 -0.994000 # Pt
580 3 0.000000 -61.160999 -35.853001 0.994000 # Pt
581 3 0.000000 -62.567001 -34.446999 -0.994000 # Pt
582 3 0.000000 -61.160999 -33.041000 0.994000 # Pt